                         Program Version 4.0.1.2 - RELEASE -
|  1> # input to generate an atomic fitting density for W
|  2> # this file is use internally by ORCA
|  3> #
|  4> # atomic ground state (S=5): 1s2 2s2 2p6 3s2 3p6 4s2 3d10 4p6 5s2 4d10 5p6 6s2 4f14 5d4
|  5> #
|  6> ! RHF AllowRHF def2-SVP def2/J  NoMulliken NoLoewdin NoMayer NoPrintMOs
|  7>
|  8> %output print[p_atomdensfit] 2 end
|  9>
| 10> %scf
| 11>   guess hcore
| 12>   maxiter 1000
| 13>   maxdisk 500000
| 14>   SCFMode Conventional
| 15>   lshift 0.500000
| 16>   hftyp rohf
| 17>   rohf_case sahf
| 18>   rohf_numop   2
| 19>   rohf_norb[1] 5
| 20>   rohf_nel[1]  4
| 21> end
| 22>
| 23> %basis
| 24>   NewECP 74
| 25>     N_core 60
| 26>     lmax f
| 27>     s 3
| 28>       1      14.3228564000   1192.3958823000  2
| 29>       2       7.1614281000     32.5229332000  2
| 30>       3       2.2588885000    -14.1525795000  2
| 31>     p 3
| 32>       1      10.0216411000    359.0319671000  2
| 33>       2       5.0108204000     24.0303802000  2
| 34>       3       2.2588885000    -14.1525795000  2
| 35>     d 3
| 36>       1       6.5979974000    108.3013490000  2
| 37>       2       3.2989987000     10.9825283000  2
| 38>       3       2.2588885000    -14.1525795000  2
| 39>     f 1
| 40>       1       2.2588885000     14.1525795000  2
| 41>   end
| 42>   NewGTO 74
| 43>     s 2
| 44>      1      15.0000000000     -1.1137185609
| 45>      2      12.0000000000      2.0918746722
| 46>     s 1
| 47>      1       5.2610967725      1.0000000000
| 48>     s 1
| 49>      1       0.9278537031      1.0000000000
| 50>     s 1
| 51>      1       0.4033445824      1.0000000000
| 52>     s 1
| 53>      1       0.1158597665      1.0000000000
| 54>     s 1
| 55>      1       0.0418004741      1.0000000000
| 56>     p 4
| 57>      1       7.2496570000      0.5026370135
| 58>      2       6.0848760000     -0.7313189333
| 59>      3       1.2523777812      0.5709572661
| 60>      4       0.5856920892      0.5687139587
| 61>     p 1
| 62>      1       0.2410696430      1.0000000000
| 63>     p 1
| 64>      1       0.0403000000      1.0000000000
| 65>     d 4
| 66>      1       4.0131231332     -0.0701863048
| 67>      2       1.6237452450      0.2042259289
| 68>      3       0.6918745239      0.4883173718
| 69>      4       0.2786583532      0.4776563921
| 70>     d 1
| 71>      1       0.1022529645      1.0000000000
| 72>   end
| 73>   NewAuxGTO 74
| 74>     S 1
| 75>      1 1310.72 1.0
| 76>     S 1
| 77>      1  655.36 1.0
| 78>     S 1
| 79>      1  327.68 1.0
| 80>     S 1
| 81>      1  163.84 1.0
| 82>     S 1
| 83>      1   81.82 1.0
| 84>     S 1
| 85>      1   40.96 1.0
| 86>     S 1
| 87>      1   20.48 1.0
| 88>     S 1
| 89>      1   10.24 1.0
| 90>     S 1
| 91>      1    5.12 1.0
| 92>     S 1
| 93>      1    2.56 1.0
| 94>     S 1
| 95>      1    1.28 1.0
| 96>     S 1
| 97>      1    0.64 1.0
| 98>     S 1
| 99>      1    0.32 1.0
|100>     S 1
|101>      1    0.16 1.0
|102>     S 1
|103>      1    0.08 1.0
|104>     S 1
|105>      1    0.04 1.0
|106>     S 1
|107>      1    0.02 1.0
|108>     S 1
|109>      1    0.01 1.0
|110>   end
|111> end
|112>
|113> * xyz 0 5
|114> 74  0.0 0.0 0.0
|115> *
|116>
|117>
|118>                          ****END OF INPUT****

CARTESIAN COORDINATES (ANGSTROEM)
---------------------------------
  W      0.000000    0.000000    0.000000

 Total Charge           Charge          ....    0
 Multiplicity           Mult            ....    5
 Number of Electrons    NEL             ....   14
 Basis Dimension        Dim             ....   25

ORBITAL ENERGIES
----------------

  NO   OCC          E(Eh)            E(eV)
   0   2.0000      -3.773187      -102.6736
   1   2.0000      -2.241125       -60.9841
   2   2.0000      -2.227056       -60.6013
   3   2.0000      -2.226871       -60.5962
   4   2.0000      -0.595988       -16.2177
   5   0.8000      -0.637594       -17.3498
   6   0.8000      -0.519688       -14.1414
   7   0.8000      -0.225759        -6.1432
   8   0.8000      -0.212584        -5.7847
   9   0.8000      -0.212414        -5.7801
  10   0.0000      -0.272948        -7.4273
  11   0.0000      -0.272590        -7.4176
  12   0.0000      -0.246946        -6.7198
  13   0.0000       0.033334         0.9071
  14   0.0000       0.157928         4.2974

CleanUpVectors: The p-vectors have cracked symmetry
CleanUpVectors: The p-vectors have cracked symmetry
CleanUpVectors: The p-vectors have cracked symmetry
CleanUpVectors: The d-vectors have cracked symmetry at i=4
CleanUpVectors: The d-vectors have cracked symmetry at i=5
CleanUpVectors: The p-vectors have cracked symmetry
--------------------------
ATOM BASIS FOR ELEMENT W
--------------------------
 NewGTO W
 S 7
    1         15.000000000000        -0.482287229813
    2         12.000000000000         0.905870186770
    3          5.261096772500        -0.943428642037
    4          0.927853703100         1.011620874801
    5          0.403344582400         0.283216793356
    6          0.115859766500        -0.001269273326
    7          0.041800474100         0.001101154135
 P 12
    1          7.249657000000        -0.135305000207
    2          6.084876000000         0.196863951050
    3          1.252377781200        -0.153696148380
    4          0.585692089200        -0.153092271825
    5          7.249657000000        -0.452489674325
    6          6.084876000000         0.658356342786
    7          1.252377781200        -0.513993718036
    8          0.585692089200        -0.511974222042
    9          0.241069643000        -0.024639346034
   10          0.241069643000        -0.082399391341
   11          0.040300000000         0.000749919993
   12          0.040300000000         0.002507897366
 D 18
    1         15.000000000000         0.000004803948
    2         12.000000000000        -0.000011278945
    3          5.261096772500         0.000027837176
    4          0.927853703100        -0.000287257161
    5          0.403344582400         0.000101891452
    6          0.115859766500         0.002159364195
    7          0.041800474100        -0.000363453931
    8          4.013123133200         0.000898719967
    9          1.623745245000        -0.002615067436
   10          0.691874523900        -0.006252794954
   11          0.278658353200        -0.006116283488
   12          4.013123133200         0.064513851778
   13          1.623745245000        -0.187720401350
   14          0.691874523900        -0.448851590560
   15          0.278658353200        -0.439052230612
   16          4.013123133200        -0.019291151210
   17          1.623745245000         0.056132792383
   18          0.691874523900         0.134217128040
 P 18
    1          7.249657000000        -0.113062107905
    2          6.084876000000         0.164501335813
    3          1.252377781200        -0.128429921186
    4          0.585692089200        -0.127925316359
    5          7.249657000000        -0.107079465269
    6          6.084876000000         0.155796804086
    7          1.252377781200        -0.121634095984
    8          0.585692089200        -0.121156192149
    9          7.249657000000         0.032019265616
   10          6.084876000000        -0.046586889836
   11          1.252377781200         0.036371440757
   12          0.585692089200         0.036228536328
   13          0.241069643000         0.162434491693
   14          0.241069643000         0.153839326316
   15          0.241069643000        -0.046001558180
   16          0.040300000000         0.656145559801
   17          0.040300000000         0.621425842695
   18          0.040300000000        -0.185820867409
 end
-------------------------------------------
RADIAL EXPECTATION VALUES <R**-3> TO <R**3>
-------------------------------------------
   0 :     0.000000     1.049756     0.983508     1.106669     1.336009     1.761609
   1 :     0.852716     0.819381     0.863431     1.275502     1.794152     2.784612
   2 :     0.849355     0.816742     0.861744     1.279143     1.806495     2.818964
   3 :     0.849316     0.816712     0.861725     1.279184     1.806636     2.819356
   4 :     0.366699     0.445051     0.621392     1.855292     3.958624    48.333577
   5 :     0.353046     0.435485     0.612618     1.897386     4.179900    50.133101
   6 :     0.000000     0.191550     0.377284     2.987485    10.347650    40.002331
   7 :     0.049531     0.085908     0.248474     4.886962    27.273957   168.640167
   8 :     0.046357     0.082197     0.243713     4.949893    27.844225   172.963450
   9 :     0.046310     0.082144     0.243646     4.950750    27.851971   173.022159
  10 :     0.321562     0.399914     0.581749     2.049363     5.023282    73.208820
  11 :     0.321455     0.399804     0.581651     2.049865     5.026116    73.277018
  12 :     0.314059     0.392301     0.574926     2.084684     5.223501    78.043124
  13 :     0.000039     0.086209     0.235501     5.324341    31.770202   203.135215
  14 :     0.096350     0.138781     0.307788     4.021639    17.959521   426.532841
  15 :     0.092209     0.134634     0.304235     4.037714    18.042420   428.569077
  16 :     0.137346     0.179772     0.343879     3.843642    16.977760   403.693878
  17 :     0.137454     0.179881     0.343977     3.843140    16.974925   403.625680
  18 :     0.144849     0.187385     0.350701     3.808321    16.777541   398.859574
  19 :     0.250890     0.273060     0.433920     3.304552    15.024556    86.358374
  20 :     0.257426     0.279410     0.440368     3.237979    14.441945    82.000738
  21 :     0.257511     0.279493     0.440453     3.237081    14.434058    81.941637
  22 :     0.000045     0.512889     0.601280     2.469328     8.891212    43.379818
  23 :     0.000000     5.091327     2.017901     0.602214     0.592494     1.488464
  24 :     0.000000    46.039065     5.463404     0.246804     0.106741     0.179536
Making the total density                ... o.k.
o.k.
Initializing the integrals              ... done
Making exponents                        ... done
Making rho(0)                           ... done (         0.000194193)
Integral calculation                    ... Two index integrals                     ... done
Solving the equation system             ... done
atomic density will be written to file opt_atom74.adf

FINAL SINGLE POINT ENERGY       -65.815834407069

DIPOLE MOMENT
-------------
                                X             Y             Z
Electronic contribution:      0.00000       0.00000      -0.00000
Nuclear contribution   :      0.00000       0.00000       0.00000
                        -----------------------------------------
Total Dipole Moment    :      0.00000       0.00000      -0.00000
                        -----------------------------------------
Magnitude (a.u.)       :      0.00000
Magnitude (Debye)      :      0.00000

                             ****ORCA TERMINATED NORMALLY****
TOTAL RUN TIME: 0 days 0 hours 0 minutes 1 seconds 144 msec
